Program Version,EnergyPlus, Version 22.2.0-c249759bad, YMD=2023.02.23 10:45
1,5,Environment Title[],Latitude[deg],Longitude[deg],Time Zone[],Elevation[m]
2,8,Day of Simulation[],Month[],Day of Month[],DST Indicator[1=yes 0=no],Hour[],StartMinute[],EndMinute[],DayType
3,5,Cumulative Day of Simulation[],Month[],Day of Month[],DST Indicator[1=yes 0=no],DayType  ! When Daily Meters Requested
4,2,Cumulative Days of Simulation[],Month[]  ! When Monthly Meters Requested
5,1,Cumulative Days of Simulation[] ! When Run Period Meters Requested
6,1,Calendar Year of Simulation[] ! When Annual Meters Requested
145,1,DistrictHeating:Facility [J] !Hourly
194,1,DistrictCooling:Facility [J] !Hourly
End of Data Dictionary
1,CHICAGO_IL_USA COOLING .4% CONDITIONS DB=>MWB,  41.78, -87.75,  -6.00, 190.00
2,1, 7,21, 0, 1, 0.00,60.00,SummerDesignDay
145,0.0
194,0.0
2,1, 7,21, 0, 2, 0.00,60.00,SummerDesignDay
145,0.0
194,0.0
2,1, 7,21, 0, 3, 0.00,60.00,SummerDesignDay
145,0.0
194,0.0
2,1, 7,21, 0, 4, 0.00,60.00,SummerDesignDay
145,0.0
194,0.0
2,1, 7,21, 0, 5, 0.00,60.00,SummerDesignDay
145,0.0
194,0.0
2,1, 7,21, 0, 6, 0.00,60.00,SummerDesignDay
145,0.0
194,0.0
2,1, 7,21, 0, 7, 0.00,60.00,SummerDesignDay
145,0.0
194,0.0
2,1, 7,21, 0, 8, 0.00,60.00,SummerDesignDay
145,0.0
194,0.0
2,1, 7,21, 0, 9, 0.00,60.00,SummerDesignDay
145,3.069544618483633e-10
194,279168.8458567445
2,1, 7,21, 0,10, 0.00,60.00,SummerDesignDay
145,1.1510792319313623e-9
194,907273.369153623
2,1, 7,21, 0,11, 0.00,60.00,SummerDesignDay
145,1.432454155292362e-9
194,1371093.3243481074
2,1, 7,21, 0,12, 0.00,60.00,SummerDesignDay
145,2.7114310796605423e-9
194,1626434.374084648
2,1, 7,21, 0,13, 0.00,60.00,SummerDesignDay
145,2.0463630789890885e-9
194,1750492.7989454586
2,1, 7,21, 0,14, 0.00,60.00,SummerDesignDay
145,2.4556356947869062e-9
194,1921780.8927697714
2,1, 7,21, 0,15, 0.00,60.00,SummerDesignDay
145,2.353317540837452e-9
194,2009616.1138833822
2,1, 7,21, 0,16, 0.00,60.00,SummerDesignDay
145,2.4556356947869062e-9
194,1918295.658688594
2,1, 7,21, 0,17, 0.00,60.00,SummerDesignDay
145,2.5067947717616335e-9
194,1635544.762243595
2,1, 7,21, 0,18, 0.00,60.00,SummerDesignDay
145,1.7394086171407253e-9
194,1286352.0771902173
2,1, 7,21, 0,19, 0.00,60.00,SummerDesignDay
145,1.0487610779819079e-9
194,750324.2245443407
2,1, 7,21, 0,20, 0.00,60.00,SummerDesignDay
145,1.0871303857129533e-10
194,76958.30566444984
2,1, 7,21, 0,21, 0.00,60.00,SummerDesignDay
145,0.0
194,0.0
2,1, 7,21, 0,22, 0.00,60.00,SummerDesignDay
145,0.0
194,0.0
2,1, 7,21, 0,23, 0.00,60.00,SummerDesignDay
145,0.0
194,0.0
2,1, 7,21, 0,24, 0.00,60.00,SummerDesignDay
145,0.0
194,0.0
1,CHICAGO_IL_USA HEATING 99.6% CONDITIONS,  41.78, -87.75,  -6.00, 190.00
2,1, 1,21, 0, 1, 0.00,60.00,WinterDesignDay
145,5896648.25318239
194,4.092726157978177e-9
2,1, 1,21, 0, 2, 0.00,60.00,WinterDesignDay
145,5896648.253182392
194,4.092726157978177e-9
2,1, 1,21, 0, 3, 0.00,60.00,WinterDesignDay
145,5896648.253182395
194,4.092726157978177e-9
2,1, 1,21, 0, 4, 0.00,60.00,WinterDesignDay
145,5896648.25318239
194,4.092726157978177e-9
2,1, 1,21, 0, 5, 0.00,60.00,WinterDesignDay
145,5896648.253182392
194,4.092726157978177e-9
2,1, 1,21, 0, 6, 0.00,60.00,WinterDesignDay
145,5896648.253182395
194,4.092726157978177e-9
2,1, 1,21, 0, 7, 0.00,60.00,WinterDesignDay
145,5896648.25318239
194,4.092726157978177e-9
2,1, 1,21, 0, 8, 0.00,60.00,WinterDesignDay
145,5896648.253182392
194,4.092726157978177e-9
2,1, 1,21, 0, 9, 0.00,60.00,WinterDesignDay
145,5896648.253182395
194,4.092726157978177e-9
2,1, 1,21, 0,10, 0.00,60.00,WinterDesignDay
145,5896648.25318239
194,4.092726157978177e-9
2,1, 1,21, 0,11, 0.00,60.00,WinterDesignDay
145,5896648.253182392
194,4.092726157978177e-9
2,1, 1,21, 0,12, 0.00,60.00,WinterDesignDay
145,5896648.253182395
194,4.092726157978177e-9
2,1, 1,21, 0,13, 0.00,60.00,WinterDesignDay
145,5896648.25318239
194,4.092726157978177e-9
2,1, 1,21, 0,14, 0.00,60.00,WinterDesignDay
145,5896648.253182392
194,4.092726157978177e-9
2,1, 1,21, 0,15, 0.00,60.00,WinterDesignDay
145,5896648.253182395
194,4.092726157978177e-9
2,1, 1,21, 0,16, 0.00,60.00,WinterDesignDay
145,5896648.25318239
194,4.092726157978177e-9
2,1, 1,21, 0,17, 0.00,60.00,WinterDesignDay
145,5896648.253182392
194,4.092726157978177e-9
2,1, 1,21, 0,18, 0.00,60.00,WinterDesignDay
145,5896648.253182395
194,4.092726157978177e-9
2,1, 1,21, 0,19, 0.00,60.00,WinterDesignDay
145,5896648.25318239
194,4.092726157978177e-9
2,1, 1,21, 0,20, 0.00,60.00,WinterDesignDay
145,5896648.253182392
194,4.092726157978177e-9
2,1, 1,21, 0,21, 0.00,60.00,WinterDesignDay
145,5896648.253182395
194,4.092726157978177e-9
2,1, 1,21, 0,22, 0.00,60.00,WinterDesignDay
145,5896648.25318239
194,4.092726157978177e-9
2,1, 1,21, 0,23, 0.00,60.00,WinterDesignDay
145,5896648.253182392
194,4.092726157978177e-9
2,1, 1,21, 0,24, 0.00,60.00,WinterDesignDay
145,5896648.253182395
194,4.092726157978177e-9
End of Data
 Number of Records Written=          96
