Program Version,EnergyPlus, Version 22.2.0-c249759bad, YMD=2023.02.23 10:45
1,5,Environment Title[],Latitude[deg],Longitude[deg],Time Zone[],Elevation[m]
2,8,Day of Simulation[],Month[],Day of Month[],DST Indicator[1=yes 0=no],Hour[],StartMinute[],EndMinute[],DayType
3,5,Cumulative Day of Simulation[],Month[],Day of Month[],DST Indicator[1=yes 0=no],DayType  ! When Daily Report Variables Requested
4,2,Cumulative Days of Simulation[],Month[]  ! When Monthly Report Variables Requested
5,1,Cumulative Days of Simulation[] ! When Run Period Report Variables Requested
6,1,Calendar Year of Simulation[] ! When Annual Report Variables Requested
7,1,Environment,Site Outdoor Air Drybulb Temperature [C] !Hourly
8,1,ZONE ONE,Zone Air System Sensible Heating Energy [J] !Hourly
93,1,ZONE ONE,Zone Air System Sensible Cooling Energy [J] !Hourly
142,1,ZONE ONE,Zone Air Temperature [C] !Hourly
145,1,DistrictHeating:Facility [J] !Hourly
194,1,DistrictCooling:Facility [J] !Hourly
End of Data Dictionary
1,CHICAGO_IL_USA COOLING .4% CONDITIONS DB=>MWB,  41.78, -87.75,  -6.00, 190.00
2,1, 7,21, 0, 1, 0.00,60.00,SummerDesignDay
7,23.453249999999997
8,0.0
93,0.0
142,22.083832545931365
145,0.0
194,0.0
2,1, 7,21, 0, 2, 0.00,60.00,SummerDesignDay
7,22.935499999999998
8,0.0
93,0.0
142,21.92698698945101
145,0.0
194,0.0
2,1, 7,21, 0, 3, 0.00,60.00,SummerDesignDay
7,22.567625
8,0.0
93,0.0
142,21.805947811284163
145,0.0
194,0.0
2,1, 7,21, 0, 4, 0.00,60.00,SummerDesignDay
7,22.240624999999998
8,0.0
93,0.0
142,21.713155758661557
145,0.0
194,0.0
2,1, 7,21, 0, 5, 0.00,60.00,SummerDesignDay
7,21.981749999999998
8,0.0
93,0.0
142,21.64004848422984
145,0.0
194,0.0
2,1, 7,21, 0, 6, 0.00,60.00,SummerDesignDay
7,22.036249999999995
8,0.0
93,0.0
142,21.709113071053448
145,0.0
194,0.0
2,1, 7,21, 0, 7, 0.00,60.00,SummerDesignDay
7,22.594875
8,0.0
93,0.0
142,22.430769900654763
145,0.0
194,0.0
2,1, 7,21, 0, 8, 0.00,60.00,SummerDesignDay
7,24.039124999999995
8,0.0
93,0.0
142,23.413169280163373
145,0.0
194,0.0
2,1, 7,21, 0, 9, 0.00,60.00,SummerDesignDay
7,26.028374999999997
8,0.0
93,279474.6819130876
142,23.9862445361704
145,3.069544618483633e-10
194,279168.8458567445
2,1, 7,21, 0,10, 0.00,60.00,SummerDesignDay
7,27.963124999999998
8,0.0
93,907273.3751448458
142,23.9999999966112
145,1.1510792319313623e-9
194,907273.369153623
2,1, 7,21, 0,11, 0.00,60.00,SummerDesignDay
7,29.679874999999996
8,0.0
93,1371093.324348144
142,23.999999999999982
145,1.432454155292362e-9
194,1371093.3243481074
2,1, 7,21, 0,12, 0.00,60.00,SummerDesignDay
7,30.974249999999998
8,0.0
93,1626434.3740846482
142,24.0
145,2.7114310796605423e-9
194,1626434.374084648
2,1, 7,21, 0,13, 0.00,60.00,SummerDesignDay
7,31.927999999999997
8,0.0
93,1750492.7989454584
142,24.000000000000004
145,2.0463630789890885e-9
194,1750492.7989454586
2,1, 7,21, 0,14, 0.00,60.00,SummerDesignDay
7,32.595625
8,0.0
93,1921780.8927697707
142,24.0
145,2.4556356947869062e-9
194,1921780.8927697714
2,1, 7,21, 0,15, 0.00,60.00,SummerDesignDay
7,32.8
8,0.0
93,2009616.1138833824
142,24.0
145,2.353317540837452e-9
194,2009616.1138833822
2,1, 7,21, 0,16, 0.00,60.00,SummerDesignDay
7,32.39125
8,0.0
93,1918295.6586885941
142,24.0
145,2.4556356947869062e-9
194,1918295.658688594
2,1, 7,21, 0,17, 0.00,60.00,SummerDesignDay
7,31.601
8,0.0
93,1635544.762243595
142,24.0
145,2.5067947717616335e-9
194,1635544.762243595
2,1, 7,21, 0,18, 0.00,60.00,SummerDesignDay
7,30.592749999999995
8,0.0
93,1286352.0771902173
142,24.0
145,1.7394086171407253e-9
194,1286352.0771902173
2,1, 7,21, 0,19, 0.00,60.00,SummerDesignDay
7,29.162124999999996
8,0.0
93,750324.2245443409
142,24.0
145,1.0487610779819079e-9
194,750324.2245443407
2,1, 7,21, 0,20, 0.00,60.00,SummerDesignDay
7,27.799624999999995
8,0.0
93,76958.3056644498
142,23.94829921501359
145,1.0871303857129533e-10
194,76958.30566444984
2,1, 7,21, 0,21, 0.00,60.00,SummerDesignDay
7,26.736874999999998
8,0.0
93,0.0
142,23.44206621328742
145,0.0
194,0.0
2,1, 7,21, 0,22, 0.00,60.00,SummerDesignDay
7,25.755874999999996
8,0.0
93,0.0
142,22.94055923331092
145,0.0
194,0.0
2,1, 7,21, 0,23, 0.00,60.00,SummerDesignDay
7,24.911125
8,0.0
93,0.0
142,22.576411715592403
145,0.0
194,0.0
2,1, 7,21, 0,24, 0.00,60.00,SummerDesignDay
7,24.148124999999997
8,0.0
93,0.0
142,22.293754730592596
145,0.0
194,0.0
1,CHICAGO_IL_USA HEATING 99.6% CONDITIONS,  41.78, -87.75,  -6.00, 190.00
2,1, 1,21, 0, 1, 0.00,60.00,WinterDesignDay
7,-21.2
8,5896648.253182389
93,0.0
142,20.0
145,5896648.25318239
194,4.092726157978177e-9
2,1, 1,21, 0, 2, 0.00,60.00,WinterDesignDay
7,-21.2
8,5896648.253182392
93,0.0
142,20.0
145,5896648.253182392
194,4.092726157978177e-9
2,1, 1,21, 0, 3, 0.00,60.00,WinterDesignDay
7,-21.2
8,5896648.253182394
93,0.0
142,20.0
145,5896648.253182395
194,4.092726157978177e-9
2,1, 1,21, 0, 4, 0.00,60.00,WinterDesignDay
7,-21.2
8,5896648.253182389
93,0.0
142,20.0
145,5896648.25318239
194,4.092726157978177e-9
2,1, 1,21, 0, 5, 0.00,60.00,WinterDesignDay
7,-21.2
8,5896648.253182392
93,0.0
142,20.0
145,5896648.253182392
194,4.092726157978177e-9
2,1, 1,21, 0, 6, 0.00,60.00,WinterDesignDay
7,-21.2
8,5896648.253182394
93,0.0
142,20.0
145,5896648.253182395
194,4.092726157978177e-9
2,1, 1,21, 0, 7, 0.00,60.00,WinterDesignDay
7,-21.2
8,5896648.253182389
93,0.0
142,20.0
145,5896648.25318239
194,4.092726157978177e-9
2,1, 1,21, 0, 8, 0.00,60.00,WinterDesignDay
7,-21.2
8,5896648.253182392
93,0.0
142,20.0
145,5896648.253182392
194,4.092726157978177e-9
2,1, 1,21, 0, 9, 0.00,60.00,WinterDesignDay
7,-21.2
8,5896648.253182394
93,0.0
142,20.0
145,5896648.253182395
194,4.092726157978177e-9
2,1, 1,21, 0,10, 0.00,60.00,WinterDesignDay
7,-21.2
8,5896648.253182389
93,0.0
142,20.0
145,5896648.25318239
194,4.092726157978177e-9
2,1, 1,21, 0,11, 0.00,60.00,WinterDesignDay
7,-21.2
8,5896648.253182392
93,0.0
142,20.0
145,5896648.253182392
194,4.092726157978177e-9
2,1, 1,21, 0,12, 0.00,60.00,WinterDesignDay
7,-21.2
8,5896648.253182394
93,0.0
142,20.0
145,5896648.253182395
194,4.092726157978177e-9
2,1, 1,21, 0,13, 0.00,60.00,WinterDesignDay
7,-21.2
8,5896648.253182389
93,0.0
142,20.0
145,5896648.25318239
194,4.092726157978177e-9
2,1, 1,21, 0,14, 0.00,60.00,WinterDesignDay
7,-21.2
8,5896648.253182392
93,0.0
142,20.0
145,5896648.253182392
194,4.092726157978177e-9
2,1, 1,21, 0,15, 0.00,60.00,WinterDesignDay
7,-21.2
8,5896648.253182394
93,0.0
142,20.0
145,5896648.253182395
194,4.092726157978177e-9
2,1, 1,21, 0,16, 0.00,60.00,WinterDesignDay
7,-21.2
8,5896648.253182389
93,0.0
142,20.0
145,5896648.25318239
194,4.092726157978177e-9
2,1, 1,21, 0,17, 0.00,60.00,WinterDesignDay
7,-21.2
8,5896648.253182392
93,0.0
142,20.0
145,5896648.253182392
194,4.092726157978177e-9
2,1, 1,21, 0,18, 0.00,60.00,WinterDesignDay
7,-21.2
8,5896648.253182394
93,0.0
142,20.0
145,5896648.253182395
194,4.092726157978177e-9
2,1, 1,21, 0,19, 0.00,60.00,WinterDesignDay
7,-21.2
8,5896648.253182389
93,0.0
142,20.0
145,5896648.25318239
194,4.092726157978177e-9
2,1, 1,21, 0,20, 0.00,60.00,WinterDesignDay
7,-21.2
8,5896648.253182392
93,0.0
142,20.0
145,5896648.253182392
194,4.092726157978177e-9
2,1, 1,21, 0,21, 0.00,60.00,WinterDesignDay
7,-21.2
8,5896648.253182394
93,0.0
142,20.0
145,5896648.253182395
194,4.092726157978177e-9
2,1, 1,21, 0,22, 0.00,60.00,WinterDesignDay
7,-21.2
8,5896648.253182389
93,0.0
142,20.0
145,5896648.25318239
194,4.092726157978177e-9
2,1, 1,21, 0,23, 0.00,60.00,WinterDesignDay
7,-21.2
8,5896648.253182392
93,0.0
142,20.0
145,5896648.253182392
194,4.092726157978177e-9
2,1, 1,21, 0,24, 0.00,60.00,WinterDesignDay
7,-21.2
8,5896648.253182394
93,0.0
142,20.0
145,5896648.253182395
194,4.092726157978177e-9
End of Data
 Number of Records Written=         288
